
     Program PWSCF v.6.4.1 starts on 26May2024 at 12:36:32 

     This program is part of the open-source Quantum ESPRESSO suite
     for quantum simulation of materials; please cite
         "P. Giannozzi et al., J. Phys.:Condens. Matter 21 395502 (2009);
         "P. Giannozzi et al., J. Phys.:Condens. Matter 29 465901 (2017);
          URL http://www.quantum-espresso.org", 
     in publications or presentations arising from this work. More details at
     http://www.quantum-espresso.org/quote

     Parallel version (MPI), running on     1 processors

     MPI processes distributed on     1 nodes
     Reading input from espresso.pwi
Warning: card &IONS ignored
Warning: card / ignored
Warning: card &CELL ignored
Warning: card / ignored

     Current dimensions of program PWSCF are:
     Max number of different atomic species (ntypx) = 10
     Max number of k-points (npk) =  40000
     Max angular momentum in pseudopotentials (lmaxx) =  3

     Subspace diagonalization in iterative solution of the eigenvalue problem:
     a serial algorithm will be used

     Message from routine setup:
     DEPRECATED: symmetry with ibrav=0, use correct ibrav instead

     G-vector sticks info
     --------------------
     sticks:   dense  smooth     PW     G-vecs:    dense   smooth      PW
     Sum        2509    2509    673                94341    94341   13301



     bravais-lattice index     =            0
     lattice parameter (alat)  =      18.8973  a.u.
     unit-cell volume          =    6748.3346 (a.u.)^3
     number of atoms/cell      =            3
     number of atomic types    =            2
     number of electrons       =         8.00
     number of Kohn-Sham states=            4
     kinetic-energy cutoff     =      22.0496  Ry
     charge density cutoff     =      88.1983  Ry
     convergence threshold     =      1.0E-06
     mixing beta               =       0.7000
     number of iterations used =            8  plain     mixing
     Exchange-correlation      =  SLA  PW   GGX  GGC ( 1  4  2  2 0 0)

     celldm(1)=  18.897261  celldm(2)=   0.000000  celldm(3)=   0.000000
     celldm(4)=   0.000000  celldm(5)=   0.000000  celldm(6)=   0.000000

     crystal axes: (cart. coord. in units of alat)
               a(1) = (   1.000000   0.000000   0.000000 )  
               a(2) = (   0.000000   1.000000   0.000000 )  
               a(3) = (   0.000000   0.000000   1.000000 )  

     reciprocal axes: (cart. coord. in units 2 pi/alat)
               b(1) = (  1.000000  0.000000  0.000000 )  
               b(2) = (  0.000000  1.000000  0.000000 )  
               b(3) = (  0.000000  0.000000  1.000000 )  


     PseudoPot. # 1 for O  read from file:
     ./O.pw91-van_ak.UPF
     MD5 check sum: afa2cba87b59f62dd86bf02dca5c457b
     Pseudo is Ultrasoft, Zval =  6.0
     Generated by new atomic code, or converted to UPF format
     Using radial grid of  737 points,  4 beta functions with: 
                l(1) =   0
                l(2) =   0
                l(3) =   1
                l(4) =   1
     Q(r) pseudized with  8 coefficients,  rinner =    0.800   0.800   0.800


     PseudoPot. # 2 for H  read from file:
     ./H.pw91-van_ak.UPF
     MD5 check sum: b661d3f2a23e8d6e95f30b6c71249167
     Pseudo is Ultrasoft, Zval =  1.0
     Generated by new atomic code, or converted to UPF format
     Using radial grid of  615 points,  1 beta functions with: 
                l(1) =   0
     Q(r) pseudized with  8 coefficients,  rinner =    0.800

     atomic species   valence    mass     pseudopotential
        O              6.00    15.99900     O ( 1.00)
        H              1.00     1.00800     H ( 1.00)

      4 Sym. Ops. (no inversion) found



   Cartesian axes

     site n.     atom                  positions (alat units)
         1           O   tau(   1) = (   0.0000000  -0.0063379   0.0000000  )
         2           H   tau(   2) = (   0.0769628   0.0531689   0.0000000  )
         3           H   tau(   3) = (  -0.0769628   0.0531689   0.0000000  )

     number of k points=     8
                       cart. coord. in units 2pi/alat
        k(    1) = (   0.0000000   0.0000000   0.0000000), wk =   0.0740741
        k(    2) = (   0.0000000   0.0000000   0.3333333), wk =   0.1481481
        k(    3) = (   0.0000000   0.3333333   0.3333333), wk =   0.2962963
        k(    4) = (   0.3333333   0.3333333   0.3333333), wk =   0.5925926
        k(    5) = (   0.3333333   0.0000000   0.0000000), wk =   0.1481481
        k(    6) = (   0.0000000   0.3333333   0.0000000), wk =   0.1481481
        k(    7) = (   0.3333333   0.0000000  -0.3333333), wk =   0.2962963
        k(    8) = (   0.3333333  -0.3333333   0.0000000), wk =   0.2962963

     Dense  grid:    94341 G-vectors     FFT dimensions: (  60,  60,  60)

     Estimated max dynamical RAM per process >     139.21 MB

     Initial potential from superposition of free atoms

     starting charge    7.99998, renormalised to    8.00000

     negative rho (up, down):  8.768E-02 0.000E+00
     Starting wfcs are    6 randomized atomic wfcs

     total cpu time spent up to now is        0.8 secs

     Self-consistent Calculation

     iteration #  1     ecut=    22.05 Ry     beta= 0.70
     Davidson diagonalization with overlap
     ethr =  1.00E-02,  avg # of iterations =  2.0

     negative rho (up, down):  1.067E-01 0.000E+00

     total cpu time spent up to now is        1.7 secs

     total energy              =     -34.26634835 Ry
     Harris-Foulkes estimate   =     -34.58188569 Ry
     estimated scf accuracy    <       0.43568694 Ry

     iteration #  2     ecut=    22.05 Ry     beta= 0.70
     Davidson diagonalization with overlap
     ethr =  5.45E-03,  avg # of iterations =  3.0

     negative rho (up, down):  9.693E-02 0.000E+00

     total cpu time spent up to now is        2.8 secs

     total energy              =     -34.34692878 Ry
     Harris-Foulkes estimate   =     -34.57953878 Ry
     estimated scf accuracy    <       0.49885541 Ry

     iteration #  3     ecut=    22.05 Ry     beta= 0.70
     Davidson diagonalization with overlap
     ethr =  5.45E-03,  avg # of iterations =  2.0

     negative rho (up, down):  1.039E-01 0.000E+00

     total cpu time spent up to now is        3.7 secs

     total energy              =     -34.44845374 Ry
     Harris-Foulkes estimate   =     -34.45101982 Ry
     estimated scf accuracy    <       0.00603616 Ry

     iteration #  4     ecut=    22.05 Ry     beta= 0.70
     Davidson diagonalization with overlap
     ethr =  7.55E-05,  avg # of iterations =  2.0

     negative rho (up, down):  1.031E-01 0.000E+00

     total cpu time spent up to now is        4.8 secs

     total energy              =     -34.45036571 Ry
     Harris-Foulkes estimate   =     -34.45069113 Ry
     estimated scf accuracy    <       0.00078440 Ry

     iteration #  5     ecut=    22.05 Ry     beta= 0.70
     Davidson diagonalization with overlap
     ethr =  9.81E-06,  avg # of iterations =  1.0

     negative rho (up, down):  1.030E-01 0.000E+00

     total cpu time spent up to now is        5.6 secs

     total energy              =     -34.45034859 Ry
     Harris-Foulkes estimate   =     -34.45040274 Ry
     estimated scf accuracy    <       0.00013363 Ry

     iteration #  6     ecut=    22.05 Ry     beta= 0.70
     Davidson diagonalization with overlap
     ethr =  1.67E-06,  avg # of iterations =  2.0

     negative rho (up, down):  1.034E-01 0.000E+00

     total cpu time spent up to now is        6.6 secs

     total energy              =     -34.45036212 Ry
     Harris-Foulkes estimate   =     -34.45036081 Ry
     estimated scf accuracy    <       0.00000707 Ry

     iteration #  7     ecut=    22.05 Ry     beta= 0.70
     Davidson diagonalization with overlap
     ethr =  8.83E-08,  avg # of iterations =  2.0

     negative rho (up, down):  1.034E-01 0.000E+00

     total cpu time spent up to now is        7.5 secs

     End of self-consistent calculation

          k = 0.0000 0.0000 0.0000 ( 11753 PWs)   bands (ev):

   -25.2961 -13.0435  -9.2161  -7.1828

          k = 0.0000 0.0000 0.3333 ( 11780 PWs)   bands (ev):

   -25.2962 -13.0432  -9.2166  -7.1856

          k = 0.0000 0.3333 0.3333 ( 11832 PWs)   bands (ev):

   -25.2963 -13.0466  -9.2196  -7.1883

          k = 0.3333 0.3333 0.3333 ( 11788 PWs)   bands (ev):

   -25.2961 -13.0450  -9.2172  -7.1852

          k = 0.3333 0.0000 0.0000 ( 11780 PWs)   bands (ev):

   -25.2960 -13.0456  -9.2165  -7.1835

          k = 0.0000 0.3333 0.0000 ( 11780 PWs)   bands (ev):

   -25.2960 -13.0450  -9.2173  -7.1834

          k = 0.3333 0.0000-0.3333 ( 11832 PWs)   bands (ev):

   -25.2964 -13.0478  -9.2184  -7.1882

          k = 0.3333-0.3333 0.0000 ( 11832 PWs)   bands (ev):

   -25.2963 -13.0476  -9.2196  -7.1860

     highest occupied level (ev):    -7.1828

!    total energy              =     -34.45036305 Ry
     Harris-Foulkes estimate   =     -34.45036353 Ry
     estimated scf accuracy    <       0.00000074 Ry

     The total energy is the sum of the following terms:

     one-electron contribution =     -63.25059846 Ry
     hartree contribution      =      33.07374852 Ry
     xc contribution           =      -8.43718389 Ry
     ewald contribution        =       4.16367078 Ry

     convergence has been achieved in   7 iterations

     Forces acting on atoms (cartesian axes, Ry/au):

     atom    1 type  1   force =     0.00000000   -0.00004224    0.00000000
     atom    2 type  2   force =     0.00000116    0.00002112    0.00000000
     atom    3 type  2   force =    -0.00000116    0.00002112    0.00000000

     Total force =     0.000052     Total SCF correction =     0.001001
     SCF correction compared to forces is large: reduce conv_thr to get better values

     Writing output data file pwscf.save/

     init_run     :      0.71s CPU      0.74s WALL (       1 calls)
     electrons    :      6.44s CPU      6.74s WALL (       1 calls)
     forces       :      0.19s CPU      0.21s WALL (       1 calls)

     Called by init_run:
     wfcinit      :      0.34s CPU      0.34s WALL (       1 calls)
     potinit      :      0.12s CPU      0.13s WALL (       1 calls)
     hinit0       :      0.16s CPU      0.16s WALL (       1 calls)

     Called by electrons:
     c_bands      :      4.04s CPU      4.05s WALL (       7 calls)
     sum_band     :      1.24s CPU      1.37s WALL (       7 calls)
     v_of_rho     :      0.85s CPU      0.86s WALL (       8 calls)
     newd         :      0.34s CPU      0.50s WALL (       8 calls)
     mix_rho      :      0.10s CPU      0.11s WALL (       7 calls)

     Called by c_bands:
     init_us_2    :      0.25s CPU      0.25s WALL (     128 calls)
     cegterg      :      3.80s CPU      3.81s WALL (      56 calls)

     Called by sum_band:
     sum_band:bec :      0.00s CPU      0.00s WALL (      56 calls)
     addusdens    :      0.31s CPU      0.43s WALL (       7 calls)

     Called by *egterg:
     h_psi        :      3.46s CPU      3.47s WALL (     176 calls)
     s_psi        :      0.13s CPU      0.14s WALL (     176 calls)
     g_psi        :      0.03s CPU      0.03s WALL (     112 calls)
     cdiaghg      :      0.01s CPU      0.01s WALL (     168 calls)

     Called by h_psi:
     h_psi:pot    :      3.45s CPU      3.45s WALL (     176 calls)
     h_psi:calbec :      0.17s CPU      0.17s WALL (     176 calls)
     vloc_psi     :      3.14s CPU      3.14s WALL (     176 calls)
     add_vuspsi   :      0.14s CPU      0.14s WALL (     176 calls)

     General routines
     calbec       :      0.25s CPU      0.25s WALL (     264 calls)
     fft          :      0.40s CPU      0.40s WALL (      90 calls)
     ffts         :      0.02s CPU      0.02s WALL (       7 calls)
     fftw         :      3.31s CPU      3.32s WALL (    1536 calls)

     Parallel routines

     PWSCF        :      7.39s CPU      7.74s WALL


   This run was terminated on:  12:36:39  26May2024            

=------------------------------------------------------------------------------=
   JOB DONE.
=------------------------------------------------------------------------------=
