
  ___ ___ ___ _ _ _  
 |   |   |_  | | | | 
 | | | | | . | | | | 
 |__ |  _|___|_____|  24.1.0
 |___|_|             

User:   daichi@daichi-FMVU9B3WDA
Date:   Sun May 26 15:36:16 2024
Arch:   x86_64
Pid:    432938
CWD:    /home/daichi/Desktop/Programming/python/ASE_DFT/H2
Python: 3.8.10
gpaw:   /home/daichi/.local/lib/python3.8/site-packages/gpaw
_gpaw:  /home/daichi/.local/lib/python3.8/site-packages/
        _gpaw.cpython-38-x86_64-linux-gnu.so
ase:    /home/daichi/.local/lib/python3.8/site-packages/ase (version 3.22.1)
numpy:  /home/daichi/.local/lib/python3.8/site-packages/numpy (version 1.22.3)
scipy:  /home/daichi/.local/lib/python3.8/site-packages/scipy (version 1.8.1)
libxc:  4.3.4
units:  Angstrom and eV
cores: 1
OpenMP: False
OMP_NUM_THREADS: 1

Input parameters:
  mode: {ecut: 300.0,
         name: pw}
  xc: PBE

System changes: positions, numbers, cell, pbc, initial_charges, initial_magmoms 

Initialize ...

species:
  H:
    name: Hydrogen
    id: d65de229564ff8ea4db303e23b6d1ecf
    Z: 1.0
    valence: 1
    core: 0
    charge: 0.0
    file: /home/daichi/Desktop/Programming/python/ASE_DFT/H2/gpaw-data/gpaw-setups-24.1.0/H.PBE.gz
    compensation charges: {type: gauss,
                           rc: 0.15,
                           lmax: 2}
    cutoffs: {filter: 0.85,
              core: 0.53}
    valence states:
      #              energy  rcut
      - 1s(1.00)    -6.494   0.476
      -  s          20.717   0.476
      -  p           0.000   0.476
  
    # Using partial waves for H as LCAO basis

Reference energy: -24.980324  # eV

Spin-paired calculation

Convergence criteria:
 Maximum [total energy] change in last 3 cyles: 0.0005 eV / valence electron
 Maximum integral of absolute [dens]ity change: 0.0001 electrons / valence electron
 Maximum integral of absolute [eigenst]ate change: 4e-08 eV^2 / valence electron
 Maximum number of scf [iter]ations: 333
 (Square brackets indicate name in SCF output, whereas a 'c' in
 the SCF output indicates the quantity has converged.)

Symmetries present (total): 16

  ( 1  0  0)  ( 1  0  0)  ( 1  0  0)  ( 1  0  0)  ( 0  1  0)  ( 0  1  0)
  ( 0  1  0)  ( 0  1  0)  ( 0 -1  0)  ( 0 -1  0)  ( 1  0  0)  ( 1  0  0)
  ( 0  0  1)  ( 0  0 -1)  ( 0  0  1)  ( 0  0 -1)  ( 0  0  1)  ( 0  0 -1)

  ( 0  1  0)  ( 0  1  0)  ( 0 -1  0)  ( 0 -1  0)  ( 0 -1  0)  ( 0 -1  0)
  (-1  0  0)  (-1  0  0)  ( 1  0  0)  ( 1  0  0)  (-1  0  0)  (-1  0  0)
  ( 0  0  1)  ( 0  0 -1)  ( 0  0  1)  ( 0  0 -1)  ( 0  0  1)  ( 0  0 -1)

  (-1  0  0)  (-1  0  0)  (-1  0  0)  (-1  0  0)
  ( 0  1  0)  ( 0  1  0)  ( 0 -1  0)  ( 0 -1  0)
  ( 0  0  1)  ( 0  0 -1)  ( 0  0  1)  ( 0  0 -1)

1 k-point (Gamma)
1 k-point in the irreducible part of the Brillouin zone
       k-points in crystal coordinates                weights
   0:     0.00000000    0.00000000    0.00000000          1/1

Wave functions: Plane wave expansion
  Cutoff energy: 300.000 eV
  Number of coefficients: 2847 (reduced to 1424)
  Pulay-stress correction: 0.000000 eV/Ang^3 (de/decut=0.000000)
  Using Numpy's FFT
  ScaLapack parameters: grid=1x1, blocksize=None
  Wavefunction extrapolation:
    Improved wavefunction reuse through dual PAW basis 

Occupation numbers: # Zero width 

Eigensolver
   Davidson(niter=2) 

Densities:
  Coarse grid: 24*24*27 grid
  Fine grid: 48*48*54 grid
  Total Charge: 0.000000 

Density mixing:
  Method: separate
  Backend: pulay
  Linear mixing parameter: 0.05
  old densities: 5
  Damping of long wavelength oscillations: 50 

Hamiltonian:
  XC and Coulomb potentials evaluated on a 48*48*54 grid
  Using the PBE Exchange-Correlation functional
  External potential:
    NoExternalPotential
 

XC parameters: PBE with 2 nearest neighbor stencil

Memory estimate:
  Process memory now: 152.58 MiB
  Calculator: 9.97 MiB
    Density: 7.29 MiB
      Arrays: 3.08 MiB
      Localized functions: 3.02 MiB
      Mixer: 1.19 MiB
    Hamiltonian: 2.08 MiB
      Arrays: 2.02 MiB
      XC: 0.00 MiB
      Poisson: 0.00 MiB
      vbar: 0.06 MiB
    Wavefunctions: 0.60 MiB
      Arrays psit_nG: 0.04 MiB
      Eigensolver: 0.15 MiB
      Projections: 0.00 MiB
      Projectors: 0.08 MiB
      PW-descriptor: 0.32 MiB

Total number of cores used: 1

Number of atoms: 2
Number of atomic orbitals: 2
Number of bands in calculation: 2
Number of valence electrons: 2
Bands to converge: occupied

... initialized

Initializing position-dependent things.

Density initialized from atomic densities
Creating initial wave functions:
  2 bands from LCAO basis set

     .--------------.  
    /|              |  
   / |              |  
  /  |              |  
 *   |              |  
 |   |              |  
 |   |    H         |  
 |   |              |  
 |   .--------------.  
 |  /              /   
 | /              /    
 |/              /     
 *--------------*      

Positions:
   0 H      3.000000    3.000000    3.737166    ( 0.0000,  0.0000,  0.0000)
   1 H      3.000000    3.000000    3.000000    ( 0.0000,  0.0000,  0.0000)

Unit cell:
           periodic     x           y           z      points  spacing
  1. axis:    no     6.000000    0.000000    0.000000    24     0.2500
  2. axis:    no     0.000000    6.000000    0.000000    24     0.2500
  3. axis:    no     0.000000    0.000000    6.737166    27     0.2495

  Lengths:   6.000000   6.000000   6.737166
  Angles:   90.000000  90.000000  90.000000

Effective grid spacing dv^(1/3) = 0.2498

     iter     time        total  log10-change:
                         energy   eigst   dens
iter:   1 15:36:17    -7.182291
iter:   2 15:36:17    -7.155317   -0.75  -0.44
iter:   3 15:36:17    -8.130801   -0.85  -0.44
iter:   4 15:36:17    -6.605821   -0.30  -0.13
iter:   5 15:36:17    -6.594439   -2.66  -1.32
iter:   6 15:36:18    -6.595001   -3.40  -1.94
iter:   7 15:36:18    -6.594830c  -3.35  -1.80
iter:   8 15:36:18    -6.594774c  -5.14  -2.45
iter:   9 15:36:18    -6.594800c  -5.28  -2.99
iter:  10 15:36:18    -6.594772c  -4.98  -2.60
iter:  11 15:36:19    -6.594772c  -6.96  -3.72
iter:  12 15:36:19    -6.594772c  -8.14c -3.83
iter:  13 15:36:19    -6.594772c  -7.21  -3.92
iter:  14 15:36:19    -6.594772c  -8.98c -4.46c

Converged after 14 iterations.

Dipole moment: (-0.000000, -0.000000, -0.000000) |e|*Ang

Energy contributions relative to reference atoms: (reference = -24.980324)

Kinetic:         +6.002849
Potential:       -7.571415
External:        +0.000000
XC:              -5.018841
Entropy (-ST):   +0.000000
Local:           -0.007366
SIC:             +0.000000
--------------------------
Free energy:     -6.594772
Extrapolated:    -6.594772

 Band  Eigenvalues  Occupancy
    0    -10.25351    2.00000
    1      0.87548    0.00000

Fermi level: -4.68902

Gap: 11.129 eV
Transition (v -> c):
  (s=0, k=0, n=0, [0.00, 0.00, 0.00]) -> (s=0, k=0, n=1, [0.00, 0.00, 0.00])

  ___ ___ ___ _ _ _  
 |   |   |_  | | | | 
 | | | | | . | | | | 
 |__ |  _|___|_____|  24.1.0
 |___|_|             

User:   daichi@daichi-FMVU9B3WDA
Date:   Sun May 26 15:36:19 2024
Arch:   x86_64
Pid:    432938
CWD:    /home/daichi/Desktop/Programming/python/ASE_DFT/H2
Python: 3.8.10
gpaw:   /home/daichi/.local/lib/python3.8/site-packages/gpaw
_gpaw:  /home/daichi/.local/lib/python3.8/site-packages/
        _gpaw.cpython-38-x86_64-linux-gnu.so
ase:    /home/daichi/.local/lib/python3.8/site-packages/ase (version 3.22.1)
numpy:  /home/daichi/.local/lib/python3.8/site-packages/numpy (version 1.22.3)
scipy:  /home/daichi/.local/lib/python3.8/site-packages/scipy (version 1.8.1)
libxc:  4.3.4
units:  Angstrom and eV
cores: 1
OpenMP: False
OMP_NUM_THREADS: 1

Input parameters:
  hund: True
  mode: {ecut: 300.0,
         name: pw}
  xc: PBE

System changes: positions, numbers, cell, pbc, initial_charges, initial_magmoms 

Initialize ...

species:
  H:
    name: Hydrogen
    id: d65de229564ff8ea4db303e23b6d1ecf
    Z: 1.0
    valence: 1
    core: 0
    charge: 0.0
    file: /home/daichi/Desktop/Programming/python/ASE_DFT/H2/gpaw-data/gpaw-setups-24.1.0/H.PBE.gz
    compensation charges: {type: gauss,
                           rc: 0.15,
                           lmax: 2}
    cutoffs: {filter: 0.85,
              core: 0.53}
    valence states:
      #              energy  rcut
      - 1s(1.00)    -6.494   0.476
      -  s          20.717   0.476
      -  p           0.000   0.476
  
    # Using partial waves for H as LCAO basis

Reference energy: -12.490162  # eV

Spin-polarized calculation.
Magnetic moment: 1.000000

Convergence criteria:
 Maximum [total energy] change in last 3 cyles: 0.0005 eV / valence electron
 Maximum integral of absolute [dens]ity change: 0.0001 electrons / valence electron
 Maximum integral of absolute [eigenst]ate change: 4e-08 eV^2 / valence electron
 Maximum number of scf [iter]ations: 333
 (Square brackets indicate name in SCF output, whereas a 'c' in
 the SCF output indicates the quantity has converged.)

Symmetries present (total): 48

  ( 1  0  0)  ( 1  0  0)  ( 1  0  0)  ( 1  0  0)  ( 1  0  0)  ( 1  0  0)
  ( 0  1  0)  ( 0  1  0)  ( 0  0  1)  ( 0  0  1)  ( 0  0 -1)  ( 0  0 -1)
  ( 0  0  1)  ( 0  0 -1)  ( 0  1  0)  ( 0 -1  0)  ( 0  1  0)  ( 0 -1  0)

  ( 1  0  0)  ( 1  0  0)  ( 0  1  0)  ( 0  1  0)  ( 0  1  0)  ( 0  1  0)
  ( 0 -1  0)  ( 0 -1  0)  ( 1  0  0)  ( 1  0  0)  ( 0  0  1)  ( 0  0  1)
  ( 0  0  1)  ( 0  0 -1)  ( 0  0  1)  ( 0  0 -1)  ( 1  0  0)  (-1  0  0)

  ( 0  1  0)  ( 0  1  0)  ( 0  1  0)  ( 0  1  0)  ( 0  0  1)  ( 0  0  1)
  ( 0  0 -1)  ( 0  0 -1)  (-1  0  0)  (-1  0  0)  ( 1  0  0)  ( 1  0  0)
  ( 1  0  0)  (-1  0  0)  ( 0  0  1)  ( 0  0 -1)  ( 0  1  0)  ( 0 -1  0)

  ( 0  0  1)  ( 0  0  1)  ( 0  0  1)  ( 0  0  1)  ( 0  0  1)  ( 0  0  1)
  ( 0  1  0)  ( 0  1  0)  ( 0 -1  0)  ( 0 -1  0)  (-1  0  0)  (-1  0  0)
  ( 1  0  0)  (-1  0  0)  ( 1  0  0)  (-1  0  0)  ( 0  1  0)  ( 0 -1  0)

  ( 0  0 -1)  ( 0  0 -1)  ( 0  0 -1)  ( 0  0 -1)  ( 0  0 -1)  ( 0  0 -1)
  ( 1  0  0)  ( 1  0  0)  ( 0  1  0)  ( 0  1  0)  ( 0 -1  0)  ( 0 -1  0)
  ( 0  1  0)  ( 0 -1  0)  ( 1  0  0)  (-1  0  0)  ( 1  0  0)  (-1  0  0)

  ( 0  0 -1)  ( 0  0 -1)  ( 0 -1  0)  ( 0 -1  0)  ( 0 -1  0)  ( 0 -1  0)
  (-1  0  0)  (-1  0  0)  ( 1  0  0)  ( 1  0  0)  ( 0  0  1)  ( 0  0  1)
  ( 0  1  0)  ( 0 -1  0)  ( 0  0  1)  ( 0  0 -1)  ( 1  0  0)  (-1  0  0)

  ( 0 -1  0)  ( 0 -1  0)  ( 0 -1  0)  ( 0 -1  0)  (-1  0  0)  (-1  0  0)
  ( 0  0 -1)  ( 0  0 -1)  (-1  0  0)  (-1  0  0)  ( 0  1  0)  ( 0  1  0)
  ( 1  0  0)  (-1  0  0)  ( 0  0  1)  ( 0  0 -1)  ( 0  0  1)  ( 0  0 -1)

  (-1  0  0)  (-1  0  0)  (-1  0  0)  (-1  0  0)  (-1  0  0)  (-1  0  0)
  ( 0  0  1)  ( 0  0  1)  ( 0  0 -1)  ( 0  0 -1)  ( 0 -1  0)  ( 0 -1  0)
  ( 0  1  0)  ( 0 -1  0)  ( 0  1  0)  ( 0 -1  0)  ( 0  0  1)  ( 0  0 -1)

1 k-point (Gamma)
1 k-point in the irreducible part of the Brillouin zone
       k-points in crystal coordinates                weights
   0:     0.00000000    0.00000000    0.00000000          1/1

Wave functions: Plane wave expansion
  Cutoff energy: 300.000 eV
  Number of coefficients: 2517 (reduced to 1259)
  Pulay-stress correction: 0.000000 eV/Ang^3 (de/decut=0.000000)
  Using Numpy's FFT
  ScaLapack parameters: grid=1x1, blocksize=None
  Wavefunction extrapolation:
    Improved wavefunction reuse through dual PAW basis 

Occupation numbers: # Zero width 

Eigensolver
   Davidson(niter=2) 

Densities:
  Coarse grid: 24*24*24 grid
  Fine grid: 48*48*48 grid
  Total Charge: 0.000000 

Density mixing:
  Method: difference
  Backend: pulay
  Linear mixing parameter: 0.05
  old densities: 5
  Damping of long wavelength oscillations: 50 

Hamiltonian:
  XC and Coulomb potentials evaluated on a 48*48*48 grid
  Using the PBE Exchange-Correlation functional
  External potential:
    NoExternalPotential
 

XC parameters: PBE with 2 nearest neighbor stencil

Memory estimate:
  Process memory now: 174.30 MiB
  Calculator: 11.18 MiB
    Density: 7.87 MiB
      Arrays: 3.69 MiB
      Localized functions: 2.70 MiB
      Mixer: 1.48 MiB
    Hamiltonian: 2.80 MiB
      Arrays: 2.74 MiB
      XC: 0.00 MiB
      Poisson: 0.00 MiB
      vbar: 0.05 MiB
    Wavefunctions: 0.52 MiB
      Arrays psit_nG: 0.04 MiB
      Eigensolver: 0.12 MiB
      Projections: 0.00 MiB
      Projectors: 0.07 MiB
      PW-descriptor: 0.30 MiB

Total number of cores used: 1

Number of atoms: 1
Number of atomic orbitals: 1
Number of bands in calculation: 1
Number of valence electrons: 1
Bands to converge: occupied

... initialized

Initializing position-dependent things.

Density initialized from atomic densities
Creating initial wave functions:
  1 band from LCAO basis set

     .--------------.  
    /|              |  
   / |              |  
  /  |              |  
 *   |              |  
 |   |              |  
 |   |    H         |  
 |   .--------------.  
 |  /              /   
 | /              /    
 |/              /     
 *--------------*      

Positions:
   0 H      3.000000    3.000000    3.000000    ( 0.0000,  0.0000,  1.0000)

Unit cell:
           periodic     x           y           z      points  spacing
  1. axis:    no     6.000000    0.000000    0.000000    24     0.2500
  2. axis:    no     0.000000    6.000000    0.000000    24     0.2500
  3. axis:    no     0.000000    0.000000    6.000000    24     0.2500

  Lengths:   6.000000   6.000000   6.000000
  Angles:   90.000000  90.000000  90.000000

Effective grid spacing dv^(1/3) = 0.2500

     iter     time        total  log10-change:  magmom
                         energy   eigst   dens
iter:   1 15:36:20    -1.073172                   +1.0000
iter:   2 15:36:20     2.011754   -2.25  -1.22    +1.0000
iter:   3 15:36:20     6.801580   -2.62  -1.18    +1.0000
iter:   4 15:36:21     0.336137   -2.18  -1.02    +1.0000
iter:   5 15:36:21    -0.254310   -3.38  -2.55    +1.0000
iter:   6 15:36:21     1.029149   -4.70  -2.07    +1.0000
iter:   7 15:36:22    -1.074345   -4.34  -2.00    +1.0000
iter:   8 15:36:22    -1.069185   -4.70  -3.04    +1.0000
iter:   9 15:36:22    -1.069546   -5.75  -2.36    +1.0000
iter:  10 15:36:22    -1.074245   -5.02  -2.54    +1.0000
iter:  11 15:36:23    -1.075334   -5.72  -3.74    +1.0000
iter:  12 15:36:23    -1.073120   -5.96  -3.24    +1.0000
iter:  13 15:36:23    -1.013406   -5.87  -3.85    +1.0000
iter:  14 15:36:24    -1.066210   -6.94  -3.63    +1.0000
iter:  15 15:36:24    -1.074853   -6.22  -3.88    +1.0000
iter:  16 15:36:24    -1.056862   -6.16  -3.35    +1.0000
iter:  17 15:36:25    -1.068313   -7.80c -3.62    +1.0000
iter:  18 15:36:25    -1.043566   -6.68  -4.05c   +1.0000
iter:  19 15:36:25    -1.075220   -6.49  -3.37    +1.0000
iter:  20 15:36:26    -1.075032   -8.22c -4.46c   +1.0000
iter:  21 15:36:26    -1.072053   -8.42c -4.43c   +1.0000
iter:  22 15:36:26    -1.072221  -10.26c -4.46c   +1.0000
iter:  23 15:36:27    -1.072913  -10.34c -4.46c   +1.0000
iter:  24 15:36:27    -1.074611   -8.94c -4.49c   +1.0000
iter:  25 15:36:27    -1.075360   -9.45c -4.67c   +1.0000
iter:  26 15:36:28    -1.074959  -10.61c -4.75c   +1.0000
iter:  27 15:36:28    -1.075436c  -8.21c -4.82c   +1.0000

Converged after 27 iterations.

Dipole moment: (-0.000000, -0.000000, -0.000000) |e|*Ang

Total magnetic moment: (0.000000, 0.000000, 1.000000)
Local magnetic moments:
   0 H  ( 0.000000,  0.000000,  0.258747)

Energy contributions relative to reference atoms: (reference = -12.490162)

Kinetic:         +0.783030
Potential:       -0.460323
External:        +0.000000
XC:              -1.393920
Entropy (-ST):   +0.000000
Local:           -0.004222
SIC:             +0.000000
--------------------------
Free energy:     -1.075436
Extrapolated:    -1.075436

Spin contamination: 0.000000 electrons
                   Up                     Down
 Band  Eigenvalues  Occupancy  Eigenvalues  Occupancy
    0     -7.52149    1.00000      0.60635    0.00000

Fermi level: -3.45757

=== Atomization Energy:  4.44 eV ===
Timing:                              incl.     excl.
-----------------------------------------------------------
Hamiltonian:                         0.151     0.001   0.0% |
 Atomic:                             0.066     0.001   0.0% |
  XC Correction:                     0.065     0.065   0.1% |
 Calculate atomic Hamiltonians:      0.009     0.009   0.0% |
 Communicate:                        0.000     0.000   0.0% |
 Initialize Hamiltonian:             0.000     0.000   0.0% |
 Poisson:                            0.000     0.000   0.0% |
 XC 3D grid:                         0.075     0.075   0.1% |
LCAO initialization:                 0.013     0.003   0.0% |
 LCAO eigensolver:                   0.001     0.000   0.0% |
  Calculate projections:             0.000     0.000   0.0% |
  DenseAtomicCorrection:             0.000     0.000   0.0% |
  Distribute overlap matrix:         0.000     0.000   0.0% |
  Orbital Layouts:                   0.000     0.000   0.0% |
  Potential matrix:                  0.001     0.001   0.0% |
 LCAO to grid:                       0.001     0.001   0.0% |
 Set positions (LCAO WFS):           0.008     0.000   0.0% |
  Basic WFS set positions:           0.001     0.001   0.0% |
  Basis functions set positions:     0.000     0.000   0.0% |
  P tci:                             0.002     0.002   0.0% |
  ST tci:                            0.002     0.002   0.0% |
  mktci:                             0.003     0.003   0.0% |
PWDescriptor:                        0.003     0.003   0.0% |
SCF-cycle:                           2.645     0.006   0.0% |
 Davidson:                           0.172     0.026   0.0% |
  Apply H:                           0.020     0.020   0.0% |
   HMM T:                            0.000     0.000   0.0% |
  Subspace diag:                     0.057     0.002   0.0% |
   calc_h_matrix:                    0.052     0.006   0.0% |
    Apply H:                         0.046     0.045   0.1% |
     HMM T:                          0.001     0.001   0.0% |
   diagonalize:                      0.002     0.002   0.0% |
   rotate_psi:                       0.002     0.002   0.0% |
  calc. matrices:                    0.064     0.017   0.0% |
   Apply H:                          0.047     0.046   0.1% |
    HMM T:                           0.001     0.001   0.0% |
  diagonalize:                       0.002     0.002   0.0% |
  rotate_psi:                        0.001     0.001   0.0% |
 Density:                            0.578     0.000   0.0% |
  Atomic density matrices:           0.008     0.008   0.0% |
  Mix:                               0.359     0.359   0.6% |
  Multipole moments:                 0.001     0.001   0.0% |
  Pseudo density:                    0.209     0.012   0.0% |
   Symmetrize density:               0.197     0.197   0.3% |
 Hamiltonian:                        1.889     0.022   0.0% |
  Atomic:                            0.912     0.015   0.0% |
   XC Correction:                    0.897     0.897   1.4% ||
  Calculate atomic Hamiltonians:     0.100     0.100   0.2% |
  Communicate:                       0.000     0.000   0.0% |
  Poisson:                           0.014     0.014   0.0% |
  XC 3D grid:                        0.841     0.841   1.3% ||
 Orthonormalize:                     0.001     0.000   0.0% |
  calc_s_matrix:                     0.000     0.000   0.0% |
  inverse-cholesky:                  0.000     0.000   0.0% |
  projections:                       0.000     0.000   0.0% |
  rotate_psi_s:                      0.000     0.000   0.0% |
Set symmetry:                        0.010     0.010   0.0% |
Other:                              60.027    60.027  95.5% |-------------------------------------|
-----------------------------------------------------------
Total:                                        62.849 100.0%

Memory usage: 234.40 MiB
Date: Sun May 26 15:37:19 2024
Timing:                              incl.     excl.
-----------------------------------------------------------
Hamiltonian:                         0.180     0.002   0.0% |
 Atomic:                             0.028     0.001   0.0% |
  XC Correction:                     0.027     0.027   0.0% |
 Calculate atomic Hamiltonians:      0.005     0.005   0.0% |
 Communicate:                        0.000     0.000   0.0% |
 Initialize Hamiltonian:             0.000     0.000   0.0% |
 Poisson:                            0.002     0.002   0.0% |
 XC 3D grid:                         0.144     0.144   0.2% |
LCAO initialization:                 0.012     0.004   0.0% |
 LCAO eigensolver:                   0.001     0.000   0.0% |
  Calculate projections:             0.000     0.000   0.0% |
  DenseAtomicCorrection:             0.000     0.000   0.0% |
  Distribute overlap matrix:         0.000     0.000   0.0% |
  Orbital Layouts:                   0.000     0.000   0.0% |
  Potential matrix:                  0.001     0.001   0.0% |
 LCAO to grid:                       0.001     0.001   0.0% |
 Set positions (LCAO WFS):           0.007     0.000   0.0% |
  Basic WFS set positions:           0.003     0.003   0.0% |
  Basis functions set positions:     0.000     0.000   0.0% |
  P tci:                             0.000     0.000   0.0% |
  ST tci:                            0.000     0.000   0.0% |
  mktci:                             0.002     0.002   0.0% |
PWDescriptor:                        0.002     0.002   0.0% |
SCF-cycle:                           8.170     0.015   0.0% |
 Davidson:                           0.307     0.058   0.1% |
  Apply H:                           0.042     0.041   0.1% |
   HMM T:                            0.001     0.001   0.0% |
  Subspace diag:                     0.062     0.004   0.0% |
   calc_h_matrix:                    0.051     0.010   0.0% |
    Apply H:                         0.041     0.040   0.1% |
     HMM T:                          0.001     0.001   0.0% |
   diagonalize:                      0.004     0.004   0.0% |
   rotate_psi:                       0.003     0.003   0.0% |
  calc. matrices:                    0.135     0.055   0.1% |
   Apply H:                          0.080     0.079   0.1% |
    HMM T:                           0.001     0.001   0.0% |
  diagonalize:                       0.007     0.007   0.0% |
  rotate_psi:                        0.003     0.003   0.0% |
 Density:                            3.135     0.001   0.0% |
  Atomic density matrices:           0.024     0.024   0.0% |
  Mix:                               0.932     0.932   1.6% ||
  Multipole moments:                 0.002     0.002   0.0% |
  Pseudo density:                    2.175     0.025   0.0% |
   Symmetrize density:               2.150     2.150   3.6% ||
 Hamiltonian:                        4.713     0.048   0.1% |
  Atomic:                            0.802     0.020   0.0% |
   XC Correction:                    0.782     0.782   1.3% ||
  Calculate atomic Hamiltonians:     0.125     0.125   0.2% |
  Communicate:                       0.000     0.000   0.0% |
  Poisson:                           0.029     0.029   0.0% |
  XC 3D grid:                        3.709     3.709   6.2% |-|
 Orthonormalize:                     0.001     0.000   0.0% |
  calc_s_matrix:                     0.000     0.000   0.0% |
  inverse-cholesky:                  0.000     0.000   0.0% |
  projections:                       0.000     0.000   0.0% |
  rotate_psi_s:                      0.000     0.000   0.0% |
Set symmetry:                        0.027     0.027   0.0% |
Other:                              51.297    51.297  85.9% |---------------------------------|
-----------------------------------------------------------
Total:                                        59.689 100.0%

Memory usage: 234.40 MiB
Date: Sun May 26 15:37:19 2024
